version 2
run General-0-20191216-14:19:11-3768
attr configname General
attr datetime 20191216-14:19:11
attr experiment General
attr inifile omnetpp.ini
attr iterationvars ""
attr iterationvarsf ""
attr measurement ""
attr network Net
attr processid 3768
attr repetition 0
attr replication #0
attr resultdir results
attr runnumber 0
attr seedset 0

vector 0 Net.sys qlen:vector ETV
attr interpolationmode sample-hold
attr title "queue length, vector"
vector 1 Net.sys queueingTime:vector ETV
attr interpolationmode none
attr title "queueing time at dequeue, vector"
attr unit s
vector 2 Net.sys "Class 3 QueueingTime:vector" ETV
attr interpolationmode none
attr title "queueing time per class, vector"
attr unit s
vector 3 Net.sys "Class 2 QueueingTime:vector" ETV
attr interpolationmode none
attr title "queueing time per class, vector"
attr unit s
vector 4 Net.sys responseTime:vector ETV
attr interpolationmode none
attr title "response time at end of service, vector"
attr unit s
vector 5 Net.sys "Class 2 ResponseTime:vector" ETV
attr interpolationmode none
attr title "response time per class, vector"
attr unit s
vector 6 Net.sys "Class 2 ExtServiceTime:vector" ETV
attr interpolationmode none
attr title "extended service time per class, vector"
attr unit s
vector 7 Net.sys "Class 1 QueueingTime:vector" ETV
attr interpolationmode none
attr title "queueing time per class, vector"
attr unit s
vector 8 Net.sink lifetime:vector ETV
attr interpolationmode none
attr title "lifetime of arrived msg, vector"
attr unit s
vector 9 Net.sink arrivedMsg:vector ETV
attr interpolationmode none
attr title "number of arrived msg, vector"
vector 10 Net.sys "Class 1 ResponseTime:vector" ETV
attr interpolationmode none
attr title "response time per class, vector"
attr unit s
vector 11 Net.sys "Class 1 ExtServiceTime:vector" ETV
attr interpolationmode none
attr title "extended service time per class, vector"
attr unit s
0	0	0	0
0	4	0.2	1
0	6	0.3	2
0	8	0.4	3
0	11	0.5	4
0	12	0.5	5
0	14	0.6	6
0	16	0.7	7
0	18	0.8	8
0	20	0.9	9
0	23	1	8
0	25	1	9
0	26	1	10
0	28	1	11
0	30	1.1	10
0	31	1.1	11
0	34	1.2	12
0	36	1.3	13
0	38	1.4	14
0	41	1.5	15
0	42	1.5	16
0	43	1.6	15
0	46	1.6	16
0	48	1.7	17
0	50	1.8	18
0	52	1.9	19
0	56	2	20
0	57	2	21
0	58	2	22
0	60	2.1	21
0	61	2.1	22
0	64	2.2	21
0	65	2.2	22
0	68	2.3	23
0	70	2.4	24
0	73	2.5	25
0	74	2.5	26
0	76	2.6	27
0	77	2.7	26
0	80	2.7	27
0	82	2.8	28
0	84	2.9	29
0	88	3	30
0	89	3	31
0	90	3	32
0	92	3.1	31
0	93	3.1	32
0	96	3.2	33
0	97	3.3	32
0	100	3.3	33
0	102	3.4	34
0	105	3.5	35
0	106	3.5	36
0	108	3.6	37
0	110	3.7	38
0	111	3.8	37
0	114	3.8	38
0	116	3.9	39
0	120	4	40
0	121	4	41
0	122	4	42
0	124	4.1	41
0	125	4.1	42
0	128	4.2	43
0	130	4.3	44
0	131	4.4	43
0	134	4.4	44
0	137	4.5	45
0	138	4.5	46
0	140	4.6	47
0	142	4.7	48
0	144	4.8	49
0	145	4.9	48
0	148	4.9	49
0	152	5	50
0	153	5	51
0	154	5	52
0	156	5.1	51
0	157	5.1	52
0	160	5.2	53
0	162	5.3	54
0	164	5.4	55
0	166	5.5	54
0	168	5.5	55
0	170	5.5	56
0	172	5.6	57
0	174	5.7	58
0	176	5.8	59
0	178	5.9	60
0	181	6	59
0	183	6	60
0	184	6	61
0	186	6	62
0	188	6.1	61
0	189	6.1	62
0	192	6.2	63
0	194	6.3	64
0	196	6.4	65
0	199	6.5	66
0	200	6.5	67
0	201	6.6	66
0	204	6.6	67
0	206	6.7	68
0	208	6.8	69
0	210	6.9	70
0	214	7	71
0	215	7	72
0	216	7	73
0	218	7.1	72
0	219	7.1	73
0	222	7.2	74
0	224	7.3	75
0	226	7.4	76
0	229	7.5	77
0	230	7.5	78
0	231	7.6	77
0	234	7.6	78
0	235	7.7	77
0	238	7.7	78
0	240	7.8	79
0	242	7.9	80
0	246	8	81
0	247	8	82
0	248	8	83
0	250	8.1	82
0	251	8.1	83
0	254	8.2	84
0	256	8.3	85
0	258	8.4	86
0	261	8.5	87
0	262	8.5	88
0	263	8.6	87
0	266	8.6	88
0	268	8.7	89
0	269	8.8	88
0	272	8.8	89
0	274	8.9	90
0	278	9	91
0	279	9	92
0	280	9	93
0	282	9.1	92
0	283	9.1	93
0	286	9.2	94
0	288	9.3	95
0	290	9.4	96
0	293	9.5	97
0	294	9.5	98
0	295	9.6	97
0	298	9.6	98
0	300	9.7	99
0	302	9.8	100
0	303	9.9	99
0	306	9.9	100
0	310	10	101
0	311	10	102
0	312	10	103
0	314	10.1	102
0	315	10.1	103
0	318	10.2	104
0	320	10.3	105
0	322	10.4	106
0	325	10.5	107
0	326	10.5	108
0	327	10.6	107
0	330	10.6	108
0	332	10.7	109
0	334	10.8	110
0	336	10.9	111
0	339	11	110
0	341	11	111
0	342	11	112
0	344	11	113
0	346	11.1	112
0	347	11.1	113
0	350	11.2	114
0	352	11.3	115
0	354	11.4	116
0	357	11.5	117
0	358	11.5	118
0	359	11.6	117
0	362	11.6	118
0	364	11.7	119
0	366	11.8	120
0	368	11.9	121
0	372	12	122
0	373	12	123
0	374	12	124
0	376	12.1	123
0	377	12.1	124
0	380	12.2	125
0	382	12.3	126
0	384	12.4	127
0	387	12.5	128
0	388	12.5	129
0	389	12.6	128
0	392	12.6	129
0	394	12.7	130
0	396	12.8	131
0	398	12.9	132
0	402	13	133
0	403	13	134
0	404	13	135
0	406	13.1	134
0	407	13.1	135
0	410	13.2	134
0	411	13.2	135
0	414	13.3	136
0	416	13.4	137
0	419	13.5	138
0	420	13.5	139
0	422	13.6	140
0	423	13.7	139
0	426	13.7	140
0	428	13.8	141
0	430	13.9	142
0	434	14	143
0	435	14	144
0	436	14	145
0	438	14.1	144
0	439	14.1	145
0	442	14.2	144
0	443	14.2	145
0	446	14.3	146
0	448	14.4	147
0	451	14.5	148
0	452	14.5	149
0	454	14.6	150
0	455	14.7	149
0	458	14.7	150
0	460	14.8	151
0	462	14.9	152
0	466	15	153
0	467	15	154
0	468	15	155
0	470	15.1	154
0	471	15.1	155
0	474	15.2	156
0	475	15.3	155
0	478	15.3	156
0	480	15.4	157
0	483	15.5	158
0	484	15.5	159
0	486	15.6	160
0	488	15.7	161
0	489	15.8	160
0	492	15.8	161
0	494	15.9	162
0	498	16	163
0	499	16	164
0	500	16	165
0	502	16.1	164
0	503	16.1	165
0	506	16.2	166
0	507	16.3	165
0	510	16.3	166
0	512	16.4	167
0	515	16.5	168
0	516	16.5	169
0	518	16.6	170
0	520	16.7	171
0	521	16.8	170
0	524	16.8	171
0	526	16.9	172
0	530	17	173
0	531	17	174
0	532	17	175
0	534	17.1	174
0	535	17.1	175
0	538	17.2	176
0	540	17.3	177
0	541	17.4	176
0	544	17.4	177
0	547	17.5	178
0	548	17.5	179
0	550	17.6	180
0	552	17.7	181
0	554	17.8	182
0	555	17.9	181
0	558	17.9	182
0	562	18	183
0	563	18	184
0	564	18	185
0	566	18.1	184
0	567	18.1	185
0	570	18.2	186
0	572	18.3	187
0	573	18.4	186
0	576	18.4	187
0	579	18.5	188
0	580	18.5	189
0	582	18.6	190
0	584	18.7	191
0	586	18.8	192
0	587	18.9	191
0	590	18.9	192
0	594	19	193
0	595	19	194
0	596	19	195
0	598	19.1	194
0	599	19.1	195
0	602	19.2	196
0	604	19.3	197
0	606	19.4	198
0	608	19.5	197
0	610	19.5	198
0	612	19.5	199
0	614	19.6	200
0	616	19.7	201
0	618	19.8	202
0	620	19.9	203
0	623	20	202
0	625	20	203
0	626	20	204
0	628	20	205
0	630	20.1	204
0	631	20.1	205
0	634	20.2	206
0	636	20.3	207
0	638	20.4	208
0	640	20.5	207
0	642	20.5	208
0	644	20.5	209
0	646	20.6	210
0	648	20.7	211
0	650	20.8	212
0	652	20.9	213
0	655	21	212
0	657	21	213
0	658	21	214
0	660	21	215
0	662	21.1	214
0	663	21.1	215
0	666	21.2	216
0	668	21.3	217
0	670	21.4	218
0	673	21.5	219
0	674	21.5	220
0	675	21.6	219
0	678	21.6	220
0	680	21.7	221
0	682	21.8	222
0	684	21.9	223
0	688	22	224
0	689	22	225
0	690	22	226
0	692	22.1	225
0	693	22.1	226
0	696	22.2	227
0	698	22.3	228
0	700	22.4	229
0	703	22.5	230
0	704	22.5	231
0	705	22.6	230
0	708	22.6	231
0	710	22.7	232
0	712	22.8	233
0	714	22.9	234
0	718	23	235
0	719	23	236
0	720	23	237
0	722	23.1	236
0	723	23.1	237
0	726	23.2	238
0	728	23.3	239
0	730	23.4	240
0	733	23.5	241
0	734	23.5	242
0	735	23.6	241
0	738	23.6	242
0	740	23.7	243
0	742	23.8	244
0	744	23.9	245
0	748	24	246
0	749	24	247
0	750	24	248
0	752	24.1	247
0	753	24.1	248
0	756	24.2	247
0	757	24.2	248
0	760	24.3	249
0	762	24.4	250
0	765	24.5	251
0	766	24.5	252
0	768	24.6	253
0	769	24.7	252
0	772	24.7	253
0	774	24.8	254
0	776	24.9	255
0	780	25	256
0	781	25	257
0	782	25	258
0	784	25.1	257
0	785	25.1	258
0	788	25.2	257
0	789	25.2	258
0	792	25.3	259
0	794	25.4	260
0	797	25.5	261
0	798	25.5	262
0	800	25.6	263
0	801	25.7	262
0	804	25.7	263
0	806	25.8	264
0	808	25.9	265
0	812	26	266
0	813	26	267
0	814	26	268
0	816	26.1	267
0	817	26.1	268
0	820	26.2	267
0	821	26.2	268
0	824	26.3	269
0	826	26.4	270
0	829	26.5	271
0	830	26.5	272
0	832	26.6	273
0	833	26.7	272
0	836	26.7	273
0	838	26.8	274
0	840	26.9	275
0	844	27	276
0	845	27	277
0	846	27	278
0	848	27.1	277
0	849	27.1	278
0	852	27.2	279
0	853	27.3	278
0	856	27.3	279
0	858	27.4	280
0	861	27.5	281
0	862	27.5	282
0	864	27.6	283
0	866	27.7	284
0	867	27.8	283
0	870	27.8	284
0	872	27.9	285
0	876	28	286
0	877	28	287
0	878	28	288
0	880	28.1	287
0	881	28.1	288
0	884	28.2	289
0	885	28.3	288
0	888	28.3	289
0	890	28.4	290
0	893	28.5	291
0	894	28.5	292
0	896	28.6	293
0	898	28.7	294
0	899	28.8	293
0	902	28.8	294
0	904	28.9	295
0	908	29	296
0	909	29	297
0	910	29	298
0	912	29.1	297
0	913	29.1	298
0	916	29.2	299
0	917	29.3	298
0	920	29.3	299
0	922	29.4	300
0	925	29.5	301
0	926	29.5	302
0	928	29.6	303
0	930	29.7	304
0	931	29.8	303
0	934	29.8	304
0	936	29.9	305
0	940	30	306
0	941	30	307
0	942	30	308
0	944	30.1	307
0	945	30.1	308
0	948	30.2	309
0	950	30.3	310
0	951	30.4	309
0	954	30.4	310
0	957	30.5	311
0	958	30.5	312
0	960	30.6	313
0	962	30.7	314
0	964	30.8	315
0	965	30.9	314
0	968	30.9	315
0	972	31	316
0	973	31	317
0	974	31	318
0	976	31.1	317
0	977	31.1	318
0	980	31.2	319
0	982	31.3	320
0	983	31.4	319
0	986	31.4	320
0	989	31.5	321
0	990	31.5	322
0	992	31.6	323
0	994	31.7	324
0	996	31.8	325
0	997	31.9	324
0	1000	31.9	325
0	1004	32	326
0	1005	32	327
0	1006	32	328
0	1008	32.1	327
0	1009	32.1	328
0	1012	32.2	329
0	1014	32.3	330
0	1015	32.4	329
0	1018	32.4	330
0	1021	32.5	331
0	1022	32.5	332
0	1024	32.6	333
0	1026	32.7	334
0	1028	32.8	335
0	1029	32.9	334
0	1032	32.9	335
0	1036	33	336
0	1037	33	337
0	1038	33	338
0	1040	33.1	337
0	1041	33.1	338
0	1044	33.2	339
0	1046	33.3	340
0	1048	33.4	341
0	1050	33.5	340
0	1052	33.5	341
0	1054	33.5	342
0	1056	33.6	343
0	1058	33.7	344
0	1060	33.8	345
0	1062	33.9	346
0	1065	34	345
0	1067	34	346
0	1068	34	347
0	1070	34	348
0	1072	34.1	347
0	1073	34.1	348
0	1076	34.2	349
0	1078	34.3	350
0	1080	34.4	351
0	1082	34.5	350
0	1084	34.5	351
0	1086	34.5	352
0	1088	34.6	353
0	1090	34.7	354
0	1092	34.8	355
0	1094	34.9	356
0	1097	35	355
0	1099	35	356
0	1100	35	357
0	1102	35	358
0	1104	35.1	357
0	1105	35.1	358
0	1108	35.2	359
0	1110	35.3	360
0	1112	35.4	361
0	1114	35.5	360
0	1116	35.5	361
0	1118	35.5	362
0	1120	35.6	363
0	1122	35.7	364
0	1124	35.8	365
0	1126	35.9	366
0	1129	36	365
0	1131	36	366
0	1132	36	367
0	1134	36	368
0	1136	36.1	367
0	1137	36.1	368
0	1140	36.2	369
0	1142	36.3	370
0	1144	36.4	371
0	1147	36.5	372
0	1148	36.5	373
0	1149	36.6	372
0	1152	36.6	373
0	1154	36.7	374
0	1156	36.8	375
0	1158	36.9	376
0	1162	37	377
0	1163	37	378
0	1164	37	379
0	1166	37.1	378
0	1167	37.1	379
0	1170	37.2	380
0	1172	37.3	381
0	1174	37.4	382
0	1177	37.5	383
0	1178	37.5	384
0	1179	37.6	383
0	1182	37.6	384
0	1184	37.7	385
0	1186	37.8	386
0	1188	37.9	387
0	1192	38	388
0	1193	38	389
0	1194	38	390
0	1196	38.1	389
0	1197	38.1	390
0	1200	38.2	391
0	1202	38.3	392
0	1204	38.4	393
0	1207	38.5	394
0	1208	38.5	395
0	1209	38.6	394
0	1212	38.6	395
0	1214	38.7	396
0	1216	38.8	397
0	1218	38.9	398
0	1222	39	399
0	1223	39	400
0	1224	39	401
0	1226	39.1	400
0	1227	39.1	401
0	1230	39.2	402
0	1232	39.3	403
0	1234	39.4	404
0	1237	39.5	405
0	1238	39.5	406
0	1239	39.6	405
0	1242	39.6	406
0	1244	39.7	407
0	1246	39.8	408
0	1248	39.9	409
0	1252	40	410
0	1253	40	411
0	1254	40	412
0	1256	40.1	411
0	1257	40.1	412
0	1260	40.2	413
0	1262	40.3	414
0	1264	40.4	415
0	1267	40.5	416
0	1268	40.5	417
0	1269	40.6	416
0	1272	40.6	417
0	1273	40.7	416
0	1276	40.7	417
0	1278	40.8	418
0	1280	40.9	419
0	1284	41	420
0	1285	41	421
0	1286	41	422
0	1288	41.1	421
0	1289	41.1	422
0	1292	41.2	423
0	1294	41.3	424
0	1296	41.4	425
0	1299	41.5	426
0	1300	41.5	427
0	1301	41.6	426
0	1304	41.6	427
0	1305	41.7	426
0	1308	41.7	427
0	1310	41.8	428
0	1312	41.9	429
0	1316	42	430
0	1317	42	431
0	1318	42	432
0	1320	42.1	431
0	1321	42.1	432
0	1324	42.2	433
0	1326	42.3	434
0	1328	42.4	435
0	1331	42.5	436
0	1332	42.5	437
0	1333	42.6	436
0	1336	42.6	437
0	1337	42.7	436
0	1340	42.7	437
0	1342	42.8	438
0	1344	42.9	439
0	1348	43	440
0	1349	43	441
0	1350	43	442
0	1352	43.1	441
0	1353	43.1	442
0	1356	43.2	443
0	1358	43.3	444
0	1360	43.4	445
0	1363	43.5	446
0	1364	43.5	447
0	1365	43.6	446
0	1368	43.6	447
0	1369	43.7	446
0	1372	43.7	447
0	1374	43.8	448
0	1376	43.9	449
0	1380	44	450
0	1381	44	451
0	1382	44	452
0	1384	44.1	451
0	1385	44.1	452
0	1388	44.2	453
0	1390	44.3	454
0	1392	44.4	455
0	1395	44.5	456
0	1396	44.5	457
0	1397	44.6	456
0	1400	44.6	457
0	1402	44.7	458
0	1403	44.8	457
0	1406	44.8	458
0	1408	44.9	459
0	1412	45	460
0	1413	45	461
0	1414	45	462
0	1416	45.1	461
0	1417	45.1	462
0	1420	45.2	463
0	1422	45.3	464
0	1424	45.4	465
0	1427	45.5	466
0	1428	45.5	467
0	1429	45.6	466
0	1432	45.6	467
0	1434	45.7	468
0	1435	45.8	467
0	1438	45.8	468
0	1440	45.9	469
0	1444	46	470
0	1445	46	471
0	1446	46	472
0	1448	46.1	471
0	1449	46.1	472
0	1452	46.2	473
0	1454	46.3	474
0	1456	46.4	475
0	1459	46.5	476
0	1460	46.5	477
0	1461	46.6	476
0	1464	46.6	477
0	1466	46.7	478
0	1467	46.8	477
0	1470	46.8	478
0	1472	46.9	479
0	1476	47	480
0	1477	47	481
0	1478	47	482
0	1480	47.1	481
0	1481	47.1	482
0	1484	47.2	483
0	1486	47.3	484
0	1488	47.4	485
0	1491	47.5	486
0	1492	47.5	487
0	1493	47.6	486
0	1496	47.6	487
0	1498	47.7	488
0	1499	47.8	487
0	1502	47.8	488
0	1504	47.9	489
0	1508	48	490
0	1509	48	491
0	1510	48	492
0	1512	48.1	491
0	1513	48.1	492
0	1516	48.2	493
0	1518	48.3	494
0	1520	48.4	495
0	1523	48.5	496
0	1524	48.5	497
0	1525	48.6	496
0	1528	48.6	497
0	1530	48.7	498
0	1532	48.8	499
0	1533	48.9	498
0	1536	48.9	499
0	1540	49	500
0	1541	49	501
0	1542	49	502
0	1544	49.1	501
0	1545	49.1	502
0	1548	49.2	503
0	1550	49.3	504
0	1552	49.4	505
0	1555	49.5	506
0	1556	49.5	507
0	1557	49.6	506
0	1560	49.6	507
0	1562	49.7	508
0	1564	49.8	509
0	1565	49.9	508
0	1568	49.9	509
0	1572	50	510
0	1573	50	511
0	1574	50	512
0	1576	50.1	511
0	1577	50.1	512
0	1580	50.2	513
0	1582	50.3	514
0	1584	50.4	515
0	1587	50.5	516
0	1588	50.5	517
0	1589	50.6	516
0	1592	50.6	517
0	1594	50.7	518
0	1596	50.8	519
0	1597	50.9	518
0	1600	50.9	519
0	1604	51	520
0	1605	51	521
0	1606	51	522
0	1608	51.1	521
0	1609	51.1	522
0	1612	51.2	523
0	1614	51.3	524
0	1616	51.4	525
0	1619	51.5	526
0	1620	51.5	527
0	1621	51.6	526
0	1624	51.6	527
0	1626	51.7	528
0	1628	51.8	529
0	1629	51.9	528
0	1632	51.9	529
0	1636	52	530
0	1637	52	531
0	1638	52	532
0	1640	52.1	531
0	1641	52.1	532
0	1644	52.2	533
0	1646	52.3	534
0	1648	52.4	535
0	1651	52.5	536
0	1652	52.5	537
0	1653	52.6	536
0	1656	52.6	537
0	1658	52.7	538
0	1660	52.8	539
0	1662	52.9	540
0	1665	53	539
0	1667	53	540
0	1668	53	541
0	1670	53	542
0	1672	53.1	541
0	1673	53.1	542
0	1676	53.2	543
0	1678	53.3	544
0	1680	53.4	545
0	1683	53.5	546
0	1684	53.5	547
0	1685	53.6	546
0	1688	53.6	547
0	1690	53.7	548
0	1692	53.8	549
0	1694	53.9	550
0	1697	54	549
0	1699	54	550
0	1700	54	551
0	1702	54	552
0	1704	54.1	551
0	1705	54.1	552
0	1708	54.2	553
0	1710	54.3	554
0	1712	54.4	555
0	1715	54.5	556
0	1716	54.5	557
0	1717	54.6	556
0	1720	54.6	557
0	1722	54.7	558
0	1724	54.8	559
0	1726	54.9	560
0	1729	55	559
0	1731	55	560
0	1732	55	561
0	1734	55	562
0	1736	55.1	561
0	1737	55.1	562
0	1740	55.2	563
0	1742	55.3	564
0	1744	55.4	565
0	1747	55.5	566
0	1748	55.5	567
0	1749	55.6	566
0	1752	55.6	567
0	1754	55.7	568
0	1756	55.8	569
0	1758	55.9	570
0	1761	56	569
0	1763	56	570
0	1764	56	571
0	1766	56	572
0	1768	56.1	571
0	1769	56.1	572
0	1772	56.2	573
0	1774	56.3	574
0	1776	56.4	575
0	1779	56.5	576
0	1780	56.5	577
0	1781	56.6	576
0	1784	56.6	577
0	1786	56.7	578
0	1788	56.8	579
0	1790	56.9	580
0	1794	57	581
0	1795	57	582
0	1796	57	583
0	1798	57.1	582
0	1799	57.1	583
0	1802	57.2	584
0	1804	57.3	585
0	1806	57.4	586
0	1809	57.5	587
0	1810	57.5	588
0	1811	57.6	587
0	1814	57.6	588
0	1816	57.7	589
0	1818	57.8	590
0	1820	57.9	591
0	1824	58	592
0	1825	58	593
0	1826	58	594
0	1828	58.1	593
0	1829	58.1	594
0	1832	58.2	595
0	1834	58.3	596
0	1836	58.4	597
0	1839	58.5	598
0	1840	58.5	599
0	1841	58.6	598
0	1844	58.6	599
0	1846	58.7	600
0	1848	58.8	601
0	1850	58.9	602
0	1854	59	603
0	1855	59	604
0	1856	59	605
0	1858	59.1	604
0	1859	59.1	605
0	1862	59.2	606
0	1864	59.3	607
0	1866	59.4	608
0	1869	59.5	609
0	1870	59.5	610
0	1871	59.6	609
0	1874	59.6	610
0	1876	59.7	611
0	1878	59.8	612
0	1880	59.9	613
0	1884	60	614
0	1885	60	615
0	1886	60	616
0	1888	60.1	615
0	1889	60.1	616
0	1892	60.2	617
0	1894	60.3	618
0	1896	60.4	619
0	1899	60.5	620
0	1900	60.5	621
0	1901	60.6	620
0	1904	60.6	621
0	1906	60.7	622
0	1908	60.8	623
0	1910	60.9	624
0	1914	61	625
0	1915	61	626
0	1916	61	627
0	1918	61.1	626
0	1919	61.1	627
0	1922	61.2	628
0	1924	61.3	629
0	1926	61.4	630
0	1929	61.5	631
0	1930	61.5	632
0	1931	61.6	631
0	1934	61.6	632
0	1936	61.7	633
0	1938	61.8	634
0	1940	61.9	635
0	1944	62	636
0	1945	62	637
0	1946	62	638
0	1948	62.1	637
0	1949	62.1	638
0	1952	62.2	639
0	1954	62.3	640
0	1956	62.4	641
0	1959	62.5	642
0	1960	62.5	643
0	1961	62.6	642
0	1964	62.6	643
0	1965	62.7	642
0	1968	62.7	643
0	1970	62.8	644
0	1972	62.9	645
0	1976	63	646
0	1977	63	647
0	1978	63	648
0	1980	63.1	647
0	1981	63.1	648
0	1984	63.2	649
0	1986	63.3	650
0	1988	63.4	651
0	1991	63.5	652
0	1992	63.5	653
0	1993	63.6	652
0	1996	63.6	653
0	1997	63.7	652
0	2000	63.7	653
0	2002	63.8	654
0	2004	63.9	655
0	2008	64	656
0	2009	64	657
0	2010	64	658
0	2012	64.1	657
0	2013	64.1	658
0	2016	64.2	659
0	2018	64.3	660
0	2020	64.4	661
0	2023	64.5	662
0	2024	64.5	663
0	2025	64.6	662
0	2028	64.6	663
0	2029	64.7	662
0	2032	64.7	663
0	2034	64.8	664
0	2036	64.9	665
0	2040	65	666
0	2041	65	667
0	2042	65	668
0	2044	65.1	667
0	2045	65.1	668
0	2048	65.2	669
0	2050	65.3	670
0	2052	65.4	671
0	2055	65.5	672
0	2056	65.5	673
0	2057	65.6	672
0	2060	65.6	673
0	2061	65.7	672
0	2064	65.7	673
0	2066	65.8	674
0	2068	65.9	675
0	2072	66	676
0	2073	66	677
0	2074	66	678
0	2076	66.1	677
0	2077	66.1	678
0	2080	66.2	679
0	2082	66.3	680
0	2084	66.4	681
0	2087	66.5	682
0	2088	66.5	683
0	2089	66.6	682
0	2092	66.6	683
0	2093	66.7	682
0	2096	66.7	683
0	2098	66.8	684
0	2100	66.9	685
0	2104	67	686
0	2105	67	687
0	2106	67	688
0	2108	67.1	687
0	2109	67.1	688
0	2112	67.2	689
0	2114	67.3	690
0	2116	67.4	691
0	2119	67.5	692
0	2120	67.5	693
0	2121	67.6	692
0	2124	67.6	693
0	2125	67.7	692
0	2128	67.7	693
0	2130	67.8	694
0	2132	67.9	695
0	2136	68	696
0	2137	68	697
0	2138	68	698
0	2140	68.1	697
0	2141	68.1	698
0	2144	68.2	699
0	2146	68.3	700
0	2148	68.4	701
0	2151	68.5	702
0	2152	68.5	703
0	2153	68.6	702
0	2156	68.6	703
0	2158	68.7	704
0	2159	68.8	703
0	2162	68.8	704
0	2164	68.9	705
0	2168	69	706
0	2169	69	707
0	2170	69	708
0	2172	69.1	707
0	2173	69.1	708
0	2176	69.2	709
0	2178	69.3	710
0	2180	69.4	711
0	2183	69.5	712
0	2184	69.5	713
0	2185	69.6	712
0	2188	69.6	713
0	2190	69.7	714
0	2191	69.8	713
0	2194	69.8	714
0	2196	69.9	715
0	2200	70	716
0	2201	70	717
0	2202	70	718
0	2204	70.1	717
0	2205	70.1	718
0	2208	70.2	719
0	2210	70.3	720
0	2212	70.4	721
0	2215	70.5	722
0	2216	70.5	723
0	2217	70.6	722
0	2220	70.6	723
0	2222	70.7	724
0	2223	70.8	723
0	2226	70.8	724
0	2228	70.9	725
0	2232	71	726
0	2233	71	727
0	2234	71	728
0	2236	71.1	727
0	2237	71.1	728
0	2240	71.2	729
0	2242	71.3	730
0	2244	71.4	731
0	2247	71.5	732
0	2248	71.5	733
0	2249	71.6	732
0	2252	71.6	733
0	2254	71.7	734
0	2255	71.8	733
0	2258	71.8	734
0	2260	71.9	735
0	2264	72	736
0	2265	72	737
0	2266	72	738
0	2268	72.1	737
0	2269	72.1	738
0	2272	72.2	739
0	2274	72.3	740
0	2276	72.4	741
0	2279	72.5	742
0	2280	72.5	743
0	2281	72.6	742
0	2284	72.6	743
0	2286	72.7	744
0	2287	72.8	743
0	2290	72.8	744
0	2292	72.9	745
0	2296	73	746
0	2297	73	747
0	2298	73	748
0	2300	73.1	747
0	2301	73.1	748
0	2304	73.2	749
0	2306	73.3	750
0	2308	73.4	751
0	2311	73.5	752
0	2312	73.5	753
0	2313	73.6	752
0	2316	73.6	753
0	2318	73.7	754
0	2319	73.8	753
0	2322	73.8	754
0	2324	73.9	755
0	2328	74	756
0	2329	74	757
0	2330	74	758
0	2332	74.1	757
0	2333	74.1	758
0	2336	74.2	759
0	2338	74.3	760
0	2340	74.4	761
0	2343	74.5	762
0	2344	74.5	763
0	2345	74.6	762
0	2348	74.6	763
0	2350	74.7	764
0	2352	74.8	765
0	2353	74.9	764
0	2356	74.9	765
0	2360	75	766
0	2361	75	767
0	2362	75	768
0	2364	75.1	767
0	2365	75.1	768
0	2368	75.2	769
0	2370	75.3	770
0	2372	75.4	771
0	2375	75.5	772
0	2376	75.5	773
0	2377	75.6	772
0	2380	75.6	773
0	2382	75.7	774
0	2384	75.8	775
0	2385	75.9	774
0	2388	75.9	775
0	2392	76	776
0	2393	76	777
0	2394	76	778
0	2396	76.1	777
0	2397	76.1	778
0	2400	76.2	779
0	2402	76.3	780
0	2404	76.4	781
0	2407	76.5	782
0	2408	76.5	783
0	2409	76.6	782
0	2412	76.6	783
0	2414	76.7	784
0	2416	76.8	785
0	2417	76.9	784
0	2420	76.9	785
0	2424	77	786
0	2425	77	787
0	2426	77	788
0	2428	77.1	787
0	2429	77.1	788
0	2432	77.2	789
0	2434	77.3	790
0	2436	77.4	791
0	2439	77.5	792
0	2440	77.5	793
0	2441	77.6	792
0	2444	77.6	793
0	2446	77.7	794
0	2448	77.8	795
0	2449	77.9	794
0	2452	77.9	795
0	2456	78	796
0	2457	78	797
0	2458	78	798
0	2460	78.1	797
0	2461	78.1	798
0	2464	78.2	799
0	2466	78.3	800
0	2468	78.4	801
0	2471	78.5	802
0	2472	78.5	803
0	2473	78.6	802
0	2476	78.6	803
0	2478	78.7	804
0	2480	78.8	805
0	2481	78.9	804
0	2484	78.9	805
0	2488	79	806
0	2489	79	807
0	2490	79	808
0	2492	79.1	807
0	2493	79.1	808
0	2496	79.2	809
0	2498	79.3	810
0	2500	79.4	811
0	2503	79.5	812
0	2504	79.5	813
0	2505	79.6	812
0	2508	79.6	813
0	2510	79.7	814
0	2512	79.8	815
0	2513	79.9	814
0	2516	79.9	815
0	2520	80	816
0	2521	80	817
0	2522	80	818
0	2524	80.1	817
0	2525	80.1	818
0	2528	80.2	819
0	2530	80.3	820
0	2532	80.4	821
0	2535	80.5	822
0	2536	80.5	823
0	2537	80.6	822
0	2540	80.6	823
0	2542	80.7	824
0	2544	80.8	825
0	2546	80.9	826
0	2549	81	825
0	2551	81	826
0	2552	81	827
0	2554	81	828
0	2556	81.1	827
0	2557	81.1	828
0	2560	81.2	829
0	2562	81.3	830
0	2564	81.4	831
0	2567	81.5	832
0	2568	81.5	833
0	2569	81.6	832
0	2572	81.6	833
0	2574	81.7	834
0	2576	81.8	835
0	2578	81.9	836
0	2581	82	835
0	2583	82	836
0	2584	82	837
0	2586	82	838
0	2588	82.1	837
0	2589	82.1	838
0	2592	82.2	839
0	2594	82.3	840
0	2596	82.4	841
0	2599	82.5	842
0	2600	82.5	843
0	2601	82.6	842
0	2604	82.6	843
0	2606	82.7	844
0	2608	82.8	845
0	2610	82.9	846
0	2613	83	845
0	2615	83	846
0	2616	83	847
0	2618	83	848
0	2620	83.1	847
0	2621	83.1	848
0	2624	83.2	849
0	2626	83.3	850
0	2628	83.4	851
0	2631	83.5	852
0	2632	83.5	853
0	2633	83.6	852
0	2636	83.6	853
0	2638	83.7	854
0	2640	83.8	855
0	2642	83.9	856
0	2645	84	855
0	2647	84	856
0	2648	84	857
0	2650	84	858
0	2652	84.1	857
0	2653	84.1	858
0	2656	84.2	859
0	2658	84.3	860
0	2660	84.4	861
0	2663	84.5	862
0	2664	84.5	863
0	2665	84.6	862
0	2668	84.6	863
0	2670	84.7	864
0	2672	84.8	865
0	2674	84.9	866
0	2677	85	865
0	2679	85	866
0	2680	85	867
0	2682	85	868
0	2684	85.1	867
0	2685	85.1	868
0	2688	85.2	869
0	2690	85.3	870
0	2692	85.4	871
0	2695	85.5	872
0	2696	85.5	873
0	2697	85.6	872
0	2700	85.6	873
0	2702	85.7	874
0	2704	85.8	875
0	2706	85.9	876
0	2709	86	875
0	2711	86	876
0	2712	86	877
0	2714	86	878
0	2716	86.1	877
0	2717	86.1	878
0	2720	86.2	879
0	2722	86.3	880
0	2724	86.4	881
0	2727	86.5	882
0	2728	86.5	883
0	2729	86.6	882
0	2732	86.6	883
0	2734	86.7	884
0	2736	86.8	885
0	2738	86.9	886
0	2742	87	887
0	2743	87	888
0	2744	87	889
0	2746	87.1	888
0	2747	87.1	889
0	2750	87.2	890
0	2752	87.3	891
0	2754	87.4	892
0	2757	87.5	893
0	2758	87.5	894
0	2759	87.6	893
0	2762	87.6	894
0	2764	87.7	895
0	2766	87.8	896
0	2768	87.9	897
0	2772	88	898
0	2773	88	899
0	2774	88	900
0	2776	88.1	899
0	2777	88.1	900
0	2780	88.2	901
0	2782	88.3	902
0	2784	88.4	903
0	2787	88.5	904
0	2788	88.5	905
0	2789	88.6	904
0	2792	88.6	905
0	2794	88.7	906
0	2796	88.8	907
0	2798	88.9	908
0	2802	89	909
0	2803	89	910
0	2804	89	911
0	2806	89.1	910
0	2807	89.1	911
0	2810	89.2	912
0	2812	89.3	913
0	2814	89.4	914
0	2817	89.5	915
0	2818	89.5	916
0	2819	89.6	915
0	2822	89.6	916
0	2824	89.7	917
0	2826	89.8	918
0	2828	89.9	919
0	2832	90	920
0	2833	90	921
0	2834	90	922
0	2836	90.1	921
0	2837	90.1	922
0	2840	90.2	923
0	2842	90.3	924
0	2844	90.4	925
0	2847	90.5	926
0	2848	90.5	927
0	2849	90.6	926
0	2852	90.6	927
0	2854	90.7	928
0	2856	90.8	929
0	2858	90.9	930
0	2862	91	931
0	2863	91	932
0	2864	91	933
0	2866	91.1	932
0	2867	91.1	933
0	2870	91.2	934
0	2872	91.3	935
0	2874	91.4	936
0	2877	91.5	937
0	2878	91.5	938
0	2879	91.6	937
0	2882	91.6	938
0	2884	91.7	939
0	2886	91.8	940
0	2888	91.9	941
0	2892	92	942
0	2893	92	943
0	2894	92	944
0	2896	92.1	943
0	2897	92.1	944
0	2900	92.2	945
0	2902	92.3	946
0	2904	92.4	947
0	2907	92.5	948
0	2908	92.5	949
0	2909	92.6	948
0	2912	92.6	949
0	2914	92.7	950
0	2916	92.8	951
0	2918	92.9	952
0	2922	93	953
0	2923	93	954
0	2924	93	955
0	2926	93.1	954
0	2927	93.1	955
0	2930	93.2	956
0	2932	93.3	957
0	2934	93.4	958
0	2937	93.5	959
0	2938	93.5	960
0	2939	93.6	959
0	2942	93.6	960
0	2944	93.7	961
0	2946	93.8	962
0	2948	93.9	963
0	2952	94	964
0	2953	94	965
0	2954	94	966
0	2956	94.1	965
0	2957	94.1	966
0	2960	94.2	967
0	2962	94.3	968
0	2964	94.4	969
0	2967	94.5	970
0	2968	94.5	971
0	2969	94.6	970
0	2972	94.6	971
0	2974	94.7	972
0	2976	94.8	973
0	2978	94.9	974
0	2982	95	975
0	2983	95	976
0	2984	95	977
0	2986	95.1	976
0	2987	95.1	977
0	2990	95.2	978
0	2992	95.3	979
0	2994	95.4	980
0	2997	95.5	981
0	2998	95.5	982
0	2999	95.6	981
0	3002	95.6	982
0	3003	95.7	981
0	3006	95.7	982
0	3008	95.8	983
0	3010	95.9	984
0	3014	96	985
0	3015	96	986
0	3016	96	987
0	3018	96.1	986
0	3019	96.1	987
0	3022	96.2	988
0	3024	96.3	989
0	3026	96.4	990
0	3029	96.5	991
0	3030	96.5	992
0	3031	96.6	991
0	3034	96.6	992
0	3035	96.7	991
0	3038	96.7	992
0	3040	96.8	993
0	3042	96.9	994
0	3046	97	995
0	3047	97	996
0	3048	97	997
0	3050	97.1	996
0	3051	97.1	997
0	3054	97.2	998
0	3056	97.3	999
0	3058	97.4	1000
0	3061	97.5	1001
0	3062	97.5	1002
0	3063	97.6	1001
0	3066	97.6	1002
0	3067	97.7	1001
0	3070	97.7	1002
0	3072	97.8	1003
0	3074	97.9	1004
0	3078	98	1005
0	3079	98	1006
0	3080	98	1007
0	3082	98.1	1006
0	3083	98.1	1007
0	3086	98.2	1008
0	3088	98.3	1009
0	3090	98.4	1010
0	3093	98.5	1011
0	3094	98.5	1012
0	3095	98.6	1011
0	3098	98.6	1012
0	3099	98.7	1011
0	3102	98.7	1012
0	3104	98.8	1013
0	3106	98.9	1014
0	3110	99	1015
0	3111	99	1016
0	3112	99	1017
0	3114	99.1	1016
0	3115	99.1	1017
0	3118	99.2	1018
0	3120	99.3	1019
0	3122	99.4	1020
0	3125	99.5	1021
0	3126	99.5	1022
0	3127	99.6	1021
0	3130	99.6	1022
0	3131	99.7	1021
0	3134	99.7	1022
0	3136	99.8	1023
0	3138	99.9	1024
0	3142	100	1025
0	3143	100	1026
0	3144	100	1027
0	3146	100.1	1026
0	3147	100.1	1027
0	3150	100.2	1028
0	3152	100.3	1029
0	3154	100.4	1030
0	3157	100.5	1031
0	3158	100.5	1032
0	3159	100.6	1031
0	3162	100.6	1032
0	3163	100.7	1031
0	3166	100.7	1032
0	3168	100.8	1033
0	3170	100.9	1034
0	3174	101	1035
0	3175	101	1036
0	3176	101	1037
0	3178	101.1	1036
0	3179	101.1	1037
0	3182	101.2	1038
0	3184	101.3	1039
0	3186	101.4	1040
0	3189	101.5	1041
0	3190	101.5	1042
0	3191	101.6	1041
0	3194	101.6	1042
0	3195	101.7	1041
0	3198	101.7	1042
0	3200	101.8	1043
0	3202	101.9	1044
0	3206	102	1045
0	3207	102	1046
0	3208	102	1047
0	3210	102.1	1046
0	3211	102.1	1047
0	3214	102.2	1048
0	3216	102.3	1049
0	3218	102.4	1050
0	3221	102.5	1051
0	3222	102.5	1052
0	3223	102.6	1051
0	3226	102.6	1052
0	3227	102.7	1051
0	3230	102.7	1052
0	3232	102.8	1053
0	3234	102.9	1054
0	3238	103	1055
0	3239	103	1056
0	3240	103	1057
0	3242	103.1	1056
0	3243	103.1	1057
0	3246	103.2	1058
0	3248	103.3	1059
0	3250	103.4	1060
0	3253	103.5	1061
0	3254	103.5	1062
0	3255	103.6	1061
0	3258	103.6	1062
0	3259	103.7	1061
0	3262	103.7	1062
0	3264	103.8	1063
0	3266	103.9	1064
0	3270	104	1065
0	3271	104	1066
0	3272	104	1067
0	3274	104.1	1066
0	3275	104.1	1067
0	3278	104.2	1068
0	3280	104.3	1069
0	3282	104.4	1070
0	3285	104.5	1071
0	3286	104.5	1072
0	3287	104.6	1071
0	3290	104.6	1072
0	3292	104.7	1073
0	3293	104.8	1072
0	3296	104.8	1073
0	3298	104.9	1074
0	3302	105	1075
0	3303	105	1076
0	3304	105	1077
0	3306	105.1	1076
0	3307	105.1	1077
0	3310	105.2	1078
0	3312	105.3	1079
0	3314	105.4	1080
0	3317	105.5	1081
0	3318	105.5	1082
0	3319	105.6	1081
0	3322	105.6	1082
0	3324	105.7	1083
0	3325	105.8	1082
0	3328	105.8	1083
0	3330	105.9	1084
0	3334	106	1085
0	3335	106	1086
0	3336	106	1087
0	3338	106.1	1086
0	3339	106.1	1087
0	3342	106.2	1088
0	3344	106.3	1089
0	3346	106.4	1090
0	3349	106.5	1091
0	3350	106.5	1092
0	3351	106.6	1091
0	3354	106.6	1092
0	3356	106.7	1093
0	3357	106.8	1092
0	3360	106.8	1093
0	3362	106.9	1094
0	3366	107	1095
0	3367	107	1096
0	3368	107	1097
0	3370	107.1	1096
0	3371	107.1	1097
0	3374	107.2	1098
0	3376	107.3	1099
0	3378	107.4	1100
0	3381	107.5	1101
0	3382	107.5	1102
0	3383	107.6	1101
0	3386	107.6	1102
0	3388	107.7	1103
0	3389	107.8	1102
0	3392	107.8	1103
0	3394	107.9	1104
0	3398	108	1105
0	3399	108	1106
0	3400	108	1107
0	3402	108.1	1106
0	3403	108.1	1107
0	3406	108.2	1108
0	3408	108.3	1109
0	3410	108.4	1110
0	3413	108.5	1111
0	3414	108.5	1112
0	3415	108.6	1111
0	3418	108.6	1112
0	3420	108.7	1113
0	3421	108.8	1112
0	3424	108.8	1113
0	3426	108.9	1114
0	3430	109	1115
0	3431	109	1116
0	3432	109	1117
0	3434	109.1	1116
0	3435	109.1	1117
0	3438	109.2	1118
0	3440	109.3	1119
0	3442	109.4	1120
0	3445	109.5	1121
0	3446	109.5	1122
0	3447	109.6	1121
0	3450	109.6	1122
0	3452	109.7	1123
0	3453	109.8	1122
0	3456	109.8	1123
0	3458	109.9	1124
0	3462	110	1125
0	3463	110	1126
0	3464	110	1127
0	3466	110.1	1126
0	3467	110.1	1127
0	3470	110.2	1128
0	3472	110.3	1129
0	3474	110.4	1130
0	3477	110.5	1131
0	3478	110.5	1132
0	3479	110.6	1131
0	3482	110.6	1132
0	3484	110.7	1133
0	3485	110.8	1132
0	3488	110.8	1133
0	3490	110.9	1134
0	3494	111	1135
0	3495	111	1136
0	3496	111	1137
0	3498	111.1	1136
0	3499	111.1	1137
0	3502	111.2	1138
0	3504	111.3	1139
0	3506	111.4	1140
0	3509	111.5	1141
0	3510	111.5	1142
0	3511	111.6	1141
0	3514	111.6	1142
0	3516	111.7	1143
0	3517	111.8	1142
0	3520	111.8	1143
0	3522	111.9	1144
0	3526	112	1145
0	3527	112	1146
0	3528	112	1147
0	3530	112.1	1146
0	3531	112.1	1147
0	3534	112.2	1148
0	3536	112.3	1149
0	3538	112.4	1150
0	3541	112.5	1151
0	3542	112.5	1152
0	3543	112.6	1151
0	3546	112.6	1152
0	3548	112.7	1153
0	3549	112.8	1152
0	3552	112.8	1153
0	3554	112.9	1154
0	3558	113	1155
0	3559	113	1156
0	3560	113	1157
0	3562	113.1	1156
0	3563	113.1	1157
0	3566	113.2	1158
0	3568	113.3	1159
0	3570	113.4	1160
0	3573	113.5	1161
0	3574	113.5	1162
0	3575	113.6	1161
0	3578	113.6	1162
0	3580	113.7	1163
0	3582	113.8	1164
0	3583	113.9	1163
0	3586	113.9	1164
0	3590	114	1165
0	3591	114	1166
0	3592	114	1167
0	3594	114.1	1166
0	3595	114.1	1167
0	3598	114.2	1168
0	3600	114.3	1169
0	3602	114.4	1170
0	3605	114.5	1171
0	3606	114.5	1172
0	3607	114.6	1171
0	3610	114.6	1172
0	3612	114.7	1173
0	3614	114.8	1174
0	3615	114.9	1173
0	3618	114.9	1174
0	3622	115	1175
0	3623	115	1176
0	3624	115	1177
0	3626	115.1	1176
0	3627	115.1	1177
0	3630	115.2	1178
0	3632	115.3	1179
0	3634	115.4	1180
0	3637	115.5	1181
0	3638	115.5	1182
0	3639	115.6	1181